HEADER
"PSFversion" "1.00"
"M0v" "m0v"
"M1v" "m1v"
"M0n" "NCSU_Devices_FreePDK45_NMOS_VTL_hspiceD"
"M1n" "NCSU_Devices_FreePDK45_PMOS_VTL_hspiceD"
