HEADER
"PSFversion" "1.00"
"I2v" "xi2v"
"I1v" "xi1v"
"I0v" "xi0v"
"I2n I1n I0n" "inverter"
