HEADER
"PSFversion" "1.00"
"VDDv" "vddv"
"GNDv" "gndv"
"Yv" "yv"
"Av" "av"
"Bv" "bv"
