HEADER
"PSFversion" "1.00"
"M6v" "m6v"
"M5v" "m5v"
"M1v" "m1v"
"M0v" "m0v"
"M7v" "m7v"
"M6n M5n M1n M0n" "NCSU_Devices_FreePDK45_NMOS_VTL_hspiceD"
"M4v" "m4v"
"M2v" "m2v"
"M3v" "m3v"
"I2v" "xi2v"
"M7n M4n M2n M3n" "NCSU_Devices_FreePDK45_PMOS_VTL_hspiceD"
"I1v" "xi1v"
"I0v" "xi0v"
"I2n I1n I0n" "transmission"
