HEADER
"PSFversion" "1.00"
"IN3v" "in3v"
"OUTv" "outv"
"INv" "inv"
"IN2v" "in2v"
"GNDv" "gndv"
"VDDv" "vddv"
