HEADER
"PSFversion" "1.00"
"I6v" "xi6v"
"I5v" "xi5v"
"I4v" "xi4v"
"I3v" "xi3v"
"I8v" "xi8v"
"I7v" "xi7v"
"I2v" "xi2v"
"I6n I5n I4n I3n I8n I7n" "inverter"
"I1v" "xi1v"
"I0v" "xi0v"
"I2n I1n I0n" "pass_mux"
