HEADER
"PSFversion" "1.00"
"Cinv" "cinv"
"GNDv" "gndv"
"Coutv" "coutv"
"Sumv" "sumv"
"VDDv" "vddv"
"Bv" "bv"
"Av" "av"
