HEADER
"PSFversion" "1.00"
"Outv" "outv"
"Gndv" "gndv"
"Cv" "cv"
"Bv" "bv"
"Av" "av"
"Vddv" "vddv"
