HEADER
"PSFversion" "1.00"
"M0v" "m0v"
"M1v" "m1v"
"M0n" "NCSU_Devices_FreePDK45_NMOS_VTL_hspiceD"
"M1n" "NCSU_Devices_FreePDK45_PMOS_VTL_hspiceD"
"Vddv" "(FUNCTION (plus (root \"M1/B\")))v"
"Av" "(FUNCTION (plus (root \"M1/S\")))v"
"Bv" "(FUNCTION (plus (root \"M0/S\")))v"
"Cv" "(FUNCTION (plus (root \"M0/G\") (root \"M1/G\")))v"
"Gndv" "(FUNCTION (plus (root \"M0/B\")))v"
"Outv" "(FUNCTION (plus (root \"M0/D\") (root \"M1/D\")))v"
