HEADER
"PSFversion" "1.00"
"Y2v" "y2v"
"P1v" "p1v"
"P3v" "p3v"
"P6v" "p6v"
"VDDv" "vddv"
"Y0v" "y0v"
"X3v" "x3v"
"Y3v" "y3v"
"P0v" "p0v"
"X1v" "x1v"
"X2v" "x2v"
"P4v" "p4v"
"P5v" "p5v"
"P7v" "p7v"
"P2v" "p2v"
"GNDv" "gndv"
"Y1v" "y1v"
"X0v" "x0v"
