HEADER
"PSFversion" "1.00"
"I8v" "xi8v"
"I7v" "xi7v"
"I3v" "xi3v"
"I8n I7n" "inverter"
"I2v" "xi2v"
"I1v" "xi1v"
"I3n I2n I1n" "mux2X1"
