HEADER
"PSFversion" "1.00"
"VDDv" "vddv"
"GNDv" "gndv"
"Qv" "qv"
"SELv" "selv"
"Av" "av"
"Bv" "bv"
