HEADER
"PSFversion" "1.00"
"M1v" "m1v"
"M0v" "m0v"
"M3v" "m3v"
"M1n M0n" "NCSU_Devices_FreePDK45_NMOS_VTL_hspiceD"
"M2v" "m2v"
"M3n M2n" "NCSU_Devices_FreePDK45_PMOS_VTL_hspiceD"
