HEADER
"PSFversion" "1.00"
"Bv" "bv"
"VDDv" "vddv"
"Av" "av"
"GNDv" "gndv"
