HEADER
"PSFversion" "1.00"
"Outputv" "outputv"
"GNDv" "gndv"
"VDDv" "vddv"
"Out1v" "out1v"
"Out2v" "out2v"
